/*--------------------------------*- C++ -*----------------------------------*\
| =========                 |                                                 |
| \\      /  F ield         | OpenFOAM: The Open Source CFD Toolbox           |
|  \\    /   O peration     | Version:  2.4.0-MNF                             |
|   \\  /    A nd           | Web:      www.OpenFOAM.org                      |
|    \\/     M anipulation  |                                                 |
\*---------------------------------------------------------------------------*/
FoamFile
{
    version     2.0;
    format      ascii;
    class       scalarField;
    location    "2e-08/lagrangian/dsmc";
    object      ERot;
}
// * * * * * * * * * * * * * * * * * * * * * * * * * * * * * * * * * * * * * //


488844
(
1.365758324e-19
0
4.585209593e-20
0
0
0
0
0
0
0
0
0
0
2.010544541e-19
0
9.00369037e-20
0
0
6.160006572e-19
4.181921508e-20
4.101790928e-19
0
0
0
1.373100474e-19
0
0
4.409085898e-19
3.591333177e-20
0
0
0
0
0
0
0
1.764051936e-19
0
0
6.992445949e-19
2.831536645e-19
2.355678625e-19
5.203504695e-19
0
0
0
0
1.47926984e-19
7.086472453e-20
6.315345989e-20
0
0
0
0
0
0
3.278351341e-20
0
1.435534978e-19
1.678468799e-19
5.158922123e-19
5.607776631e-20
0
0
0
0
0
0
0
8.267608427e-20
0
4.301940613e-19
5.569904206e-19
4.309343014e-20
0
0
0
0
0
1.747792498e-19
0
0
0
0
3.26337279e-19
0
1.566948004e-19
5.714803372e-19
5.947998345e-20
0
2.451943471e-19
2.272776389e-19
0
6.071029407e-19
0
0
2.794411784e-19
4.197548899e-19
0
4.424257176e-20
0
2.981358956e-19
4.043010046e-19
1.905640604e-19
0
6.111779247e-20
0
0
9.235599693e-20
2.051643567e-19
0
0
0
0
0
0
6.398039953e-19
0
1.0893872e-19
0
2.993387286e-19
0
0
0
1.129870705e-18
0
0
0
6.284137924e-20
9.142270826e-20
0
0
1.173930311e-19
0
0
0
0
9.926087673e-20
0
1.796164249e-19
0
9.762992735e-20
5.213102279e-20
1.170289279e-19
0
1.635923316e-19
0
1.604310194e-19
4.919196812e-20
2.506246991e-20
0
1.93239497e-19
2.331020054e-19
0
0
3.943901952e-19
8.376019752e-19
3.332704092e-20
1.879276322e-20
0
0
4.708108067e-19
4.053860323e-20
6.285349741e-19
2.081013905e-19
0
0
2.0966732e-19
0
0
0
0
0
2.805866505e-19
2.867424436e-19
2.376537193e-20
0
3.634364474e-21
1.322381505e-19
0
0
0
0
3.804779071e-19
6.685232068e-19
0
0
0
3.294119603e-19
0
0
1.572099502e-19
0
0
4.162438987e-19
0
4.529584197e-19
6.96097309e-19
0
0
4.409085657e-19
3.254861934e-19
2.323139765e-19
0
1.597779315e-19
0
2.133089768e-19
3.246102754e-19
1.99177821e-19
0
3.710389905e-19
5.634627187e-19
0
3.09223152e-20
0
1.754824001e-19
0
0
2.861295605e-19
0
2.749160834e-19
0
0
4.221741336e-19
0
0
2.469582408e-20
7.006989083e-20
0
0
0
1.06715429e-19
5.978387837e-20
5.032428679e-19
5.179019927e-20
0
0
1.341304053e-19
1.006611967e-19
2.060505333e-19
0
2.174542179e-19
4.026343379e-19
0
0
3.156985479e-19
0
2.440410801e-19
3.26906641e-20
2.351145273e-21
7.855561385e-20
0
0
3.248267546e-19
4.406225334e-19
0
0
0
0
0
1.794944919e-18
0
3.36981697e-20
0
0
1.754216734e-19
1.268593945e-19
9.550744617e-20
0
0
0
0
0
0
0
0
0
2.617985064e-19
0
5.181337323e-21
2.720013913e-20
0
0
0
1.092037055e-18
0
0
0
0
0
4.077761739e-19
0
0
6.478082293e-21
0
7.276272319e-19
2.753744589e-19
0
1.261206471e-19
9.23035292e-22
3.434203844e-19
0
0
0
0
0
0
0
0
0
0
1.663103476e-19
2.280809232e-19
0
0
3.014796422e-19
0
0
0
0
0
0
1.034822642e-19
0
0
0
1.748936191e-19
0
0
0
0
0
0
0
3.260910509e-19
0
0
0
3.571573055e-20
0
0
1.029751097e-19
1.764585545e-20
5.066991777e-19
0
0
1.851259685e-19
0
0
0
1.143305956e-19
2.777391234e-19
3.592726552e-20
0
0
6.645175602e-20
4.838096634e-19
5.186860744e-19
0
0
3.061041055e-19
5.426496802e-19
4.277166209e-19
7.323455565e-19
3.580640811e-19
0
0
2.051307126e-19
0
1.341075364e-19
0
0
2.146945477e-20
0
0
0
1.904891268e-19
0
0
0
1.142209168e-19
1.517733655e-19
0
8.856197272e-20
1.346584802e-19
0
0
1.783700102e-19
0
1.903026228e-20
0
2.433663894e-19
0
6.904869404e-19
0
0
0
0
9.681399585e-20
0
0
1.370902188e-19
0
8.50498865e-20
7.725546216e-20
0
2.379401778e-19
1.097078451e-19
1.839542068e-20
0
0
0
1.429061487e-19
0
0
0
0
0
1.690964729e-20
2.381117475e-19
8.832219959e-20
8.880368497e-20
0
0
3.237033949e-19
1.934278343e-19
3.796831301e-19
2.234486884e-19
1.257102442e-19
1.527283919e-19
0
9.939718715e-19
2.976886458e-19
0
0
0
1.068322257e-19
0
0
0
5.135217668e-20
0
0
6.637457224e-20
0
2.491999925e-19
0
4.075276475e-19
2.303512892e-19
1.23898033e-19
0
0
1.133931111e-19
1.090576656e-19
4.289678038e-19
8.554691261e-20
4.296913763e-19
2.403893011e-20
0
0
0
4.315982526e-19
4.8927074e-20
0
1.894325133e-19
1.985235882e-19
0
6.500298465e-20
0
0
0
3.677622533e-19
0
0
1.109451685e-19
0
0
0
4.935297171e-19
0
0
0
2.537931141e-19
0
5.960657566e-20
5.647072551e-19
0
0
1.294391885e-19
5.152119406e-20
0
0
0
0
0
0
7.99466166e-20
0
2.030587616e-19
2.283262867e-19
0
0
4.457657298e-19
6.149303683e-19
1.647758924e-20
3.690166945e-19
0
0
3.201994724e-19
8.798660942e-20
0
0
0
0
0
0
0
3.452466052e-20
6.34737443e-19
0
0
0
1.919528306e-19
0
6.413048183e-20
2.63628101e-19
0
0
2.001810739e-19
5.277203942e-19
0
0
0
6.265305338e-20
1.26706445e-19
8.538195052e-20
2.674091228e-19
0
0
0
0
0
1.011763058e-19
6.999770035e-20
1.986212587e-20
1.954099748e-19
4.556005862e-19
8.782628462e-20
0
0
0
0
0
3.417769555e-19
0
1.65043249e-19
0
0
4.458563289e-20
0
4.688294337e-19
0
0
9.400633418e-22
0
0
8.032678661e-20
0
0
0
0
0
2.216679061e-19
1.528642705e-19
0
0
0
4.802896598e-20
1.339938062e-19
7.226297038e-20
4.931643231e-19
0
1.969027211e-19
0
5.02339429e-19
0
1.94991485e-19
0
4.219399202e-20
1.08571768e-19
2.802232357e-19
0
0
2.251188946e-19
8.023952968e-20
0
0
0
0
0
5.188909631e-19
6.686949011e-19
2.066223424e-19
0
0
7.568013099e-19
0
0
2.467886797e-19
0
1.199928766e-19
0
2.278752068e-19
5.649939076e-21
0
0
0
0
0
0
5.270644393e-19
0
0
1.3274893e-19
0
5.256129947e-20
0
0
1.435208889e-19
3.043792714e-19
0
0
1.020304028e-19
0
5.230903496e-20
1.049125259e-18
0
0
0
0
2.783348302e-19
2.95984782e-20
4.326527247e-20
0
1.477490174e-19
9.250264157e-20
3.52147662e-19
0
0
0
0
2.092925168e-19
0
0
1.814574564e-19
9.892808619e-20
3.681578185e-20
3.413978885e-19
7.625309988e-19
0
3.211472944e-22
0
3.479557291e-19
1.598399115e-19
1.850271037e-20
0
0
0
0
0
0
5.640941996e-21
8.045260164e-20
0
5.097657887e-19
2.997245829e-20
0
9.434601433e-20
0
0
2.012110468e-19
2.898782392e-21
0
0
5.15254502e-19
0
0
0
0
6.964403081e-20
0
1.217757591e-18
0
0
9.054175176e-20
1.191672597e-19
2.77821715e-19
0
4.023725451e-19
1.249620263e-19
0
0
0
5.722052975e-19
0
0
0
8.351763509e-20
0
0
0
0
3.04452021e-19
1.886256193e-19
0
2.047007534e-19
0
0
0
2.351905141e-19
0
4.930529564e-21
0
1.348566926e-19
0
0
6.267847501e-19
1.010554189e-19
0
1.418465981e-19
4.897630253e-19
0
0
4.288112838e-20
0
0
5.415235755e-20
0
0
0
0
0
0
2.67324467e-19
0
0
0
0
0
0
3.811636127e-19
2.178881474e-19
0
0
3.601894821e-19
8.357279115e-21
0
0
0
0
3.042668193e-19
0
6.318407143e-20
0
0
0
4.450088158e-20
1.763453047e-20
1.122125768e-19
6.241192483e-20
0
1.734009484e-19
0
0
2.349518206e-19
0
6.062122657e-19
6.153057724e-20
6.763604324e-19
0
1.79846898e-19
2.850226533e-20
0
0
0
2.153696881e-19
0
2.545539916e-19
7.683327807e-20
0
3.090798058e-20
0
0
2.034910898e-19
0
1.509766096e-19
6.930056665e-20
5.873118893e-19
1.140930427e-19
9.124182979e-20
0
3.194119353e-19
0
1.771503138e-19
0
2.268706122e-19
3.527198744e-19
3.753108995e-19
3.861733919e-20
2.768541318e-19
5.959641101e-20
2.194911154e-19
0
0
4.024539397e-19
4.576386262e-19
2.811241268e-20
0
0
0
0
3.856589963e-20
0
0
7.045088263e-20
4.130919936e-19
0
1.635976237e-19
0
0
0
0
3.114910663e-20
0
0
1.125892948e-19
0
7.112746902e-20
3.323346874e-19
4.499043692e-19
0
0
0
1.756712748e-19
0
2.402359208e-20
0
0
7.70284709e-20
2.206823401e-20
3.402688996e-20
2.446289054e-19
6.474524897e-20
0
0
0
1.718872534e-19
0
2.353391911e-19
0
2.609536871e-20
0
5.365290455e-20
2.485390575e-19
0
6.709980009e-20
0
0
4.938784607e-19
0
0
2.465538675e-20
0
0
1.50596423e-19
1.367826847e-19
0
4.354475664e-19
0
0
0
0
0
0
0
3.835925145e-20
0
0
0
0
0
0
6.876994494e-19
5.165673837e-20
0
0
4.75748487e-20
0
0
2.157836126e-19
0
0
0
0
3.665312382e-19
0
0
1.370787024e-19
0
0
1.038984494e-19
3.10160186e-19
3.180799779e-20
2.833687334e-19
0
4.116530353e-19
0
0
2.964186795e-19
0
0
0
5.983663686e-20
0
2.335219062e-19
1.307886811e-18
0
0
7.24337385e-20
0
0
4.100918811e-20
5.385628042e-19
0
0
0
1.398664988e-19
0
0
0
0
4.166218597e-20
0
1.155336812e-19
2.606814046e-20
3.257391539e-19
0
0
3.630680244e-19
0
0
0
0
3.100372473e-19
0
0
0
0
0
0
0
0
4.060340071e-19
4.000687704e-20
5.479836189e-20
0
0
0
2.721148699e-19
6.346069968e-20
2.077570058e-19
5.946273649e-20
0
6.330494642e-20
0
0
0
0
0
0
2.992285024e-19
0
7.595525005e-20
0
0
1.180161857e-19
0
0
5.860718277e-20
0
0
1.059290154e-19
0
8.779741906e-20
2.059677254e-19
0
0
0
2.69771051e-19
1.977550114e-19
6.132094302e-20
3.763848882e-19
1.388598219e-19
2.709996474e-19
2.542810585e-20
2.705175383e-19
0
8.618313148e-20
5.488372112e-20
0
0
0
6.624141063e-19
0
1.136603133e-19
0
1.557908627e-19
0
0
0
5.368468625e-19
4.660530431e-19
0
0
0
0
2.409024973e-19
7.739598584e-20
0
2.766317979e-20
0
0
0
1.021042267e-19
3.834361427e-20
0
1.030736387e-19
2.370637392e-19
2.071636175e-20
6.669935007e-19
0
1.037059179e-19
3.453889294e-19
0
0
1.990284048e-19
0
0
0
0
0
0
0
3.670606917e-21
0
0
0
0
2.605821494e-19
1.196731869e-19
2.630662273e-20
0
2.685201114e-19
0
2.223782458e-20
0
0
0
1.14193259e-19
0
0
4.773679106e-19
0
0
0
0
2.822690152e-20
1.92784045e-19
0
0
0
0
0
3.911015374e-20
5.491864658e-20
0
0
1.40641159e-19
0
2.760248434e-19
0
7.833149747e-20
0
1.915195097e-20
0
0
0
0
0
0
1.671802466e-19
8.42653558e-19
9.444529073e-20
0
0
0
0
1.202734695e-19
0
7.591541245e-20
0
0
2.454508217e-20
0
0
0
0
8.29935077e-19
0
1.333135933e-19
1.158051438e-18
3.548871398e-21
1.26498356e-19
2.907899358e-19
2.353196943e-19
1.254966441e-19
4.590643982e-20
8.374315406e-19
4.016517335e-20
0
0
5.3422896e-20
0
0
1.626018696e-19
3.137695446e-20
2.675816542e-19
0
0
0
0
1.894111608e-20
5.183032256e-21
1.514965652e-19
0
2.713629648e-19
0
1.458908543e-19
5.466448358e-20
0
6.045895146e-19
0
0
0
0
3.792923071e-20
1.929024528e-19
0
1.122307962e-20
0
1.241113848e-20
0
0
1.836388107e-19
0
2.722499303e-19
0
0
0
0
1.144118854e-18
0
0
0
0
0
4.436190866e-19
0
8.19523503e-20
1.068571401e-19
0
1.510337219e-19
5.040728821e-20
3.85166517e-20
1.019679711e-20
5.115271491e-19
1.797064745e-19
1.912588352e-19
0
8.928729866e-20
2.239792202e-19
0
1.946706105e-19
2.196694147e-19
1.51841832e-19
0
0
1.525895882e-19
0
0
0
0
0
0
1.328492856e-19
0
0
0
1.004577286e-19
0
0
0
0
2.769954535e-19
0
0
0
2.45836769e-19
1.531535261e-19
0
2.377374031e-19
4.297226487e-19
0
0
0
5.702646238e-20
0
6.113459425e-21
1.996013926e-19
0
3.932979284e-19
2.603295024e-19
0
0
1.506074631e-20
0
6.28830461e-20
1.577995851e-19
6.577586071e-20
6.009756216e-20
0
0
0
7.520156875e-20
6.263335003e-19
0
5.353428412e-20
2.410883881e-20
8.127407022e-20
0
0
0
1.121248543e-19
0
0
0
0
0
0
1.789223493e-19
0
0
2.965751964e-19
0
0
0
0
9.053940294e-19
5.222457468e-21
2.738672663e-19
0
0
0
0
0
0
0
3.634456e-20
9.009762587e-21
1.048075967e-19
0
0
0
0
0
1.266297697e-20
0
8.835432814e-21
0
0
1.736623809e-19
1.187387952e-19
0
6.320105671e-19
0
0
0
0
1.273580475e-19
1.971772082e-20
0
1.553079159e-19
1.872742605e-19
2.934433972e-19
3.225427743e-19
3.189851857e-19
3.569607317e-19
0
1.186709806e-19
0
3.561714733e-20
6.110015953e-20
0
2.551062597e-19
2.527071202e-21
0
0
1.817679542e-20
7.944882103e-20
0
0
0
0
1.655500201e-19
0
0
2.342270532e-20
0
5.70315832e-19
0
3.698384105e-20
9.014483043e-20
1.874272403e-20
0
0
0
5.77305511e-19
0
0
2.90423857e-19
0
2.515962222e-20
6.61322233e-20
0
0
1.825371363e-21
1.180483165e-19
0
1.975859108e-19
7.444380732e-20
0
2.914004703e-19
1.056698331e-19
0
4.860161493e-19
0
4.397268651e-19
0
8.683672615e-20
0
6.863278088e-19
0
5.858558132e-20
0
2.880108303e-19
0
6.320450745e-20
3.89634563e-20
3.200836264e-19
0
0
2.594430275e-19
0
0
2.256813869e-19
6.116911346e-20
0
0
3.132804222e-19
0
0
0
0
0
0
0
0
0
0
0
0
0
0
1.047510354e-19
0
2.276040532e-19
7.235313817e-19
2.254406853e-19
0
0
3.614046405e-19
6.968865495e-19
3.849969907e-19
0
0
0
0
2.978897618e-19
3.050050244e-19
0
0
0
0
1.550142908e-19
2.138455792e-19
0
0
0
0
6.343821057e-20
0
4.56929415e-19
0
0
2.566360739e-19
0
0
0
0
0
0
0
3.415105661e-19
9.158999011e-19
0
1.444445263e-19
1.748720382e-19
0
1.92892754e-19
0
4.42604047e-20
1.117058246e-19
1.123586874e-19
3.639245023e-19
6.165281194e-20
0
0
0
2.145130464e-19
0
0
3.805174494e-19
0
0
5.574598228e-19
0
3.008302623e-19
0
0
0
0
0
2.182634299e-19
0
3.591793726e-20
3.762857224e-19
2.533074826e-19
0
4.59744206e-19
0
0
7.859238617e-20
0
0
0
0
0
0
2.680803347e-19
5.766130133e-20
0
5.332309679e-19
0
0
0
3.716714421e-19
1.084904534e-19
0
0
0
1.59169954e-19
0
3.978963796e-20
5.653149341e-20
1.218114187e-19
5.806354751e-20
2.608882401e-19
0
3.471597548e-19
0
8.302897096e-20
0
5.057371877e-19
0
0
0
3.752090083e-19
0
2.9860311e-19
6.069555464e-20
0
0
5.635242078e-20
3.91846665e-20
0
0
3.269548646e-19
0
0
0
5.803585187e-20
0
0
1.219331463e-19
7.930224245e-19
0
6.914305849e-20
0
2.80886884e-19
0
0
0
0
1.334548893e-19
0
1.369135488e-19
1.155081559e-19
0
0
0
4.011746859e-20
0
0
0
2.006280803e-19
0
0
0
0
2.403905806e-19
0
0
1.778795773e-19
0
0
0
2.400491311e-19
0
0
0
0
0
7.33568319e-19
0
0
0
6.342390208e-20
0
0
5.97981501e-20
0
0
2.016997375e-20
1.108169838e-19
0
6.973002271e-20
0
0
0
7.854890082e-20
2.203311678e-19
0
2.476124405e-19
0
0
1.762004251e-19
5.16123045e-19
5.610887394e-20
0
0
1.732080363e-19
3.532227627e-19
0
7.080608728e-20
0
0
0
0
0
0
7.231069436e-20
0
6.60761887e-20
0
0
0
5.842629564e-20
3.564036383e-20
0
0
0
2.415946217e-19
0
2.765819076e-19
0
1.394345612e-19
3.114640891e-20
1.296357263e-19
0
3.473403682e-21
1.348124749e-19
1.619359613e-19
1.326546447e-20
0
5.602718704e-20
0
1.722933769e-19
2.21270257e-19
0
0
1.37072055e-21
3.220518994e-19
0
2.795092956e-20
0
1.437810944e-20
3.968969878e-19
0
0
6.977189161e-19
0
3.189071376e-19
3.03221239e-19
0
0
0
8.799075655e-19
0
1.103536159e-19
1.48203026e-20
3.853284146e-19
0
0
0
1.628178587e-20
4.764511961e-21
2.930378713e-20
6.470992112e-20
2.812136097e-19
0
2.093320642e-19
7.947283285e-20
1.465198981e-19
0
0
9.85441367e-21
0
3.619987781e-19
3.381293484e-19
9.554525633e-21
0
4.427865559e-19
0
0
1.043612759e-19
6.495513882e-19
1.508898869e-21
2.311303306e-19
2.270104237e-19
1.206217666e-19
0
3.188727941e-19
0
5.246548631e-19
4.178755251e-19
2.805168871e-19
6.69178223e-19
5.253363164e-19
0
0
0
1.150865241e-19
0
0
0
0
0
3.430300423e-20
0
1.483316742e-19
4.344861904e-20
6.719100752e-20
0
0
3.873179297e-19
0
0
2.312095141e-19
0
0
0
7.29210416e-19
0
6.276617156e-20
8.100035501e-19
1.925525125e-19
5.848232631e-19
7.974486821e-21
0
6.0625552e-20
2.632010571e-19
2.692608415e-20
0
2.688755171e-19
4.273387936e-19
3.18007106e-19
0
0
0
2.313906262e-19
3.471062853e-20
0
2.071607878e-21
0
0
0
8.332224856e-20
0
0
0
1.288871649e-18
0
0
2.808787629e-20
1.006776783e-19
0
0
0
1.7722915e-20
0
1.323611762e-20
0
0
0
3.623010183e-19
0
5.88393905e-20
1.917181271e-20
0
0
6.935182966e-20
0
8.453661193e-19
2.419195814e-19
2.726795442e-19
0
0
0
2.362569573e-20
4.62362617e-19
0
0
1.055537329e-19
0
0
1.988454457e-21
0
2.486869082e-19
1.38122674e-20
9.262984095e-20
0
0
2.491683839e-19
0
0
0
0
0
0
0
5.251388857e-20
4.179957747e-19
0
5.433851902e-19
0
0
2.360544209e-19
0
1.25127029e-19
0
0
0
9.383683977e-20
0
0
4.296573705e-20
1.029790852e-19
0
2.121770784e-19
0
0
2.249861301e-19
0
0
2.808554325e-19
1.843970461e-19
0
1.664727487e-19
0
9.122588971e-20
2.086580849e-19
1.120078904e-19
2.837397978e-20
1.256004859e-19
2.499497336e-19
1.911309607e-19
0
0
5.181330196e-21
0
0
5.754972616e-20
0
0
0
5.294903798e-21
4.980339231e-20
0
0
0
3.425055542e-19
0
5.409163347e-19
0
2.129523033e-19
0
2.118583661e-19
9.371081764e-20
0
0
0
0
0
0
0
2.049478588e-19
0
0
1.348824423e-19
0
8.554611632e-20
8.461960261e-20
0
5.08463323e-19
5.99745422e-19
0
0
2.37718535e-19
0
0
0
0
0
2.931586579e-19
0
6.498801088e-19
0
0
0
0
1.578653493e-19
0
0
6.372851894e-19
7.810003103e-21
0
1.48732157e-19
1.046175577e-20
0
5.155037316e-19
9.010646628e-20
0
0
0
0
8.2211833e-19
0
1.404359508e-19
1.436838458e-19
0
0
1.532282755e-21
1.339728674e-19
7.846792535e-19
6.44107692e-20
0
0
0
3.839444222e-20
6.074095998e-19
1.9306953e-20
0
4.184293729e-19
6.424208933e-20
2.016786981e-19
5.360574087e-19
4.634743479e-20
0
5.341558371e-19
0
0
0
0
0
0
0
0
0
0
0
2.234959082e-20
1.835616747e-19
1.606883411e-19
0
0
7.562086073e-20
1.661490615e-19
3.013018747e-19
0
0
0
0
0
3.650155795e-20
0
0
0
3.408709164e-19
3.222362663e-20
6.327040484e-20
0
0
0
0
7.561238724e-20
2.299623864e-19
0
0
0
5.209650994e-20
2.369925956e-20
0
0
0
1.014964698e-19
2.174959882e-19
6.002769114e-19
0
1.394044741e-19
1.584445494e-19
1.651483693e-19
0
1.996855816e-19
0
2.013831628e-19
0
0
0
0
1.560705673e-19
2.003818622e-20
1.491129507e-19
0
0
2.411241622e-19
0
0
0
0
5.259985982e-20
0
0
1.340565521e-19
9.731588455e-20
0
0
0
6.195496972e-20
2.833676144e-19
5.210455131e-19
0
3.016189192e-19
8.5443194e-20
0
0
4.337976203e-20
1.089418084e-20
1.632284494e-19
0
0
0
0
0
0
3.294676625e-19
2.052516109e-19
0
1.367067866e-19
4.857874635e-20
0
0
1.004581081e-19
0
0
0
0
0
6.937962497e-19
0
0
1.475697857e-19
1.376993592e-19
0
0
0
0
1.091580395e-19
4.702162531e-19
7.67634016e-20
1.888449243e-20
1.765233664e-19
6.214914446e-20
1.983612882e-19
0
2.714075951e-19
3.891260819e-20
0
3.249630464e-20
1.033539891e-19
5.959802788e-21
0
0
0
1.443216165e-19
0
1.711289555e-20
0
0
2.666389691e-19
0
4.146443406e-19
0
0
0
0
0
0
0
0
2.947860134e-20
2.07606517e-19
0
9.988135812e-20
0
6.635782154e-21
0
0
0
4.460166614e-20
0
4.959577111e-19
0
0
0
0
6.13900076e-20
0
0
0
0
0
0
2.145057594e-19
0
0
0
2.655331408e-19
4.699948899e-19
0
0
1.520586282e-21
0
0
3.704634327e-20
0
5.030229429e-20
0
4.783890134e-20
0
0
0
0
5.168789336e-20
0
0
0
0
0
3.070002556e-19
0
0
0
0
1.071822e-19
0
0
0
8.074944658e-20
2.769544928e-19
0
3.320215576e-19
0
0
0
0
3.7363886e-20
4.584179824e-19
1.309215034e-20
1.337292568e-19
0
0
5.491842396e-21
0
0
1.126971527e-18
0
2.290066396e-19
1.581033061e-19
0
0
3.53851837e-19
0
0
1.504986991e-19
5.327769112e-20
3.454220912e-19
0
0
3.733613304e-19
4.085670226e-19
2.82672957e-19
0
0
0
1.72186753e-19
0
0
2.18218048e-19
0
9.015518445e-20
0
3.18497356e-19
0
1.131089581e-19
0
0
0
0
0
6.55246494e-20
0
0
0
0
0
0
2.709821251e-20
3.094474959e-19
1.816727595e-19
0
6.038080048e-19
0
0
0
0
1.984250194e-19
3.405334953e-20
4.505005183e-20
0
0
0
0
0
0
1.875174953e-19
0
1.883702482e-19
0
0
1.597121947e-19
6.327008933e-19
0
0
1.49998768e-19
9.398354172e-21
0
0
0
0
1.285010437e-19
0
2.2329443e-20
0
0
5.628371647e-19
2.437486356e-19
0
3.455457045e-19
0
1.782060789e-19
0
0
1.078936627e-18
3.039778128e-19
0
0
0
0
2.94292158e-19
0
0
5.576685507e-20
0
0
1.015134579e-19
0
0
0
5.132720962e-19
0
4.093569203e-20
0
0
3.629517911e-19
1.006235321e-19
0
0
0
9.225163968e-20
0
5.528098861e-20
0
0
1.128998505e-19
7.178608592e-20
0
9.639192268e-21
0
0
0
1.575853604e-19
5.168668156e-19
0
0
0
0
3.4045798e-20
2.341778708e-19
0
0
5.72814811e-21
4.304580593e-20
0
0
0
0
1.138653699e-19
4.858154699e-19
0
0
0
2.376520805e-19
1.314116565e-19
0
0
0
0
0
0
0
3.097818786e-20
0
1.94065258e-19
0
4.306740851e-19
0
2.570916563e-19
0
0
1.792769872e-19
1.364195429e-20
1.85711693e-19
0
5.979628066e-19
0
0
5.075521201e-20
0
3.626556905e-19
1.128837235e-19
0
2.296417251e-19
0
1.166067935e-19
0
7.425238714e-20
0
8.35990311e-21
2.362399234e-19
0
0
0
0
0
0
0
0
1.906033991e-19
1.53364821e-19
0
0
0
4.724305597e-20
0
1.07387285e-19
0
0
1.688407231e-19
0
1.05633505e-19
0
0
3.852140978e-19
4.382262705e-19
0
0
4.016002357e-19
0
0
0
4.383478598e-19
0
6.322696555e-20
0
0
0
0
4.261761584e-20
0
0
0
2.798041203e-19
0
1.027892888e-18
0
0
0
1.3157883e-19
0
0
2.189655629e-19
2.776197085e-20
0
0
0
0
8.416011273e-19
1.304486993e-20
7.861690801e-20
0
5.105013645e-20
0
0
0
1.183162878e-19
2.010639067e-19
1.797285985e-19
0
0
0
0
5.660194198e-20
0
0
0
0
0
8.420135822e-19
9.317750959e-21
0
5.266520145e-20
0
0
5.113678137e-20
0
0
0
8.320219899e-20
1.676535284e-19
0
0
0
0
1.728798277e-19
0
0
7.3966829e-20
1.806481205e-19
0
3.583317355e-19
3.625188179e-19
0
0
2.009716071e-19
0
0
7.882962194e-20
0
4.121149732e-19
0
0
6.361706331e-20
0
2.183112258e-19
0
0
0
0
9.859394484e-20
3.088785371e-21
2.152785886e-19
5.220009846e-20
0
2.612163554e-19
1.19929537e-19
1.896764506e-20
0
2.452625254e-20
0
0
0
2.062522697e-19
0
1.956534521e-19
7.17638702e-20
0
0
3.420965193e-19
0
4.48437428e-20
0
0
5.801415954e-19
2.674637833e-19
0
2.105601699e-19
0
2.923197132e-20
0
1.751255138e-19
0
3.118902448e-19
2.492841519e-19
0
0
0
7.401003921e-21
1.846297894e-19
2.157781066e-19
0
4.192192467e-20
0
0
0
3.960201138e-19
4.598738846e-21
3.848900237e-20
2.116977878e-20
0
7.292170292e-20
6.970043104e-20
1.063831227e-19
0
0
0
0
8.0290225e-20
0
1.187852219e-19
0
7.190266638e-20
0
5.463154004e-19
1.083020053e-21
0
3.490918313e-19
0
0
3.332375191e-19
1.393130966e-19
0
1.34613067e-19
0
7.02249787e-20
2.075938802e-19
0
8.064971892e-19
0
2.0401785e-19
8.455907376e-20
0
0
0
0
0
1.726270796e-19
8.184928453e-19
3.267353074e-19
0
0
0
0
0
0
0
5.917215116e-20
0
0
0
0
0
0
0
5.764385512e-21
8.029518667e-20
0
0
0
0
0
0
0
0
2.026014273e-19
5.247297987e-19
4.841699736e-19
0
2.170867215e-19
0
9.233719445e-20
0
0
0
0
9.693202848e-20
3.022185393e-19
0
1.265249191e-19
0
2.264641224e-19
1.228795499e-19
0
0
4.501306572e-20
0
0
0
0
0
0
8.965313984e-20
0
0
0
3.293290363e-19
2.436408897e-19
0
0
0
4.38775406e-19
0
0
0
4.509885488e-19
2.920874451e-19
4.463302297e-20
1.847500075e-19
2.642302498e-19
7.134558161e-20
2.14816155e-19
0
0
0
0
2.361441519e-19
9.986183752e-20
0
0
0
4.149036426e-19
8.965426798e-20
0
4.017290229e-20
4.869604937e-21
0
0
0
3.703039729e-20
4.933812262e-21
4.136444011e-20
9.973110749e-21
0
0
0
4.239983259e-19
0
6.176754385e-19
0
1.247276442e-19
2.199114829e-19
0
4.388374791e-19
4.856600118e-19
0
0
2.229887699e-19
0
0
0
5.806758056e-19
2.032819103e-19
0
0
1.829209132e-19
0
0
0
0
0
0
7.767752104e-19
1.328610102e-19
0
0
0
0
4.30926323e-20
1.325916881e-19
0
0
0
7.627891972e-19
4.022143052e-19
5.887880703e-19
1.195734659e-20
0
0
0
5.015109238e-20
0
4.928120437e-19
0
0
0
1.88696298e-19
0
0
1.616545052e-20
2.625347537e-19
0
1.945754766e-20
0
0
0
0
0
0
1.351703587e-19
1.122568398e-19
0
7.848628476e-20
0
3.951100676e-19
0
0
0
0
0
1.066750942e-19
1.779727402e-19
0
1.892815752e-19
0
1.062532857e-19
0
4.115622122e-21
4.4360214e-19
0
2.966677785e-19
0
0
0
5.104978674e-19
8.014753715e-19
1.700359992e-19
3.455663975e-20
0
0
2.532545895e-19
0
0
0
0
0
0
1.613214843e-19
4.398774158e-20
0
0
0
0
7.494368292e-20
9.743161381e-20
6.017972858e-20
1.780570963e-19
0
3.570998571e-19
2.271022655e-19
0
1.820734553e-20
2.573942241e-19
1.534427054e-19
9.495335767e-20
2.824428383e-19
1.743165387e-20
0
0
0
0
9.981206147e-20
0
3.26253394e-20
3.014606414e-19
0
8.494564778e-20
0
7.63576223e-19
5.836050751e-19
0
2.897765981e-19
0
0
1.271518512e-18
0
0
7.918455588e-19
0
2.985672128e-19
0
5.992859023e-19
0
0
2.138038271e-19
0
0
1.378020668e-19
0
0
7.12263871e-20
0
0
0
6.15317092e-21
0
6.505776709e-20
0
0
2.804161537e-19
3.868709247e-19
0
1.059743185e-19
0
0
0
0
0
0
0
0
0
5.311418346e-19
0
7.862503946e-19
1.345250542e-19
0
0
0
0
0
1.16033961e-19
0
0
2.825959492e-19
8.685111867e-20
0
6.987718596e-20
0
4.350107831e-19
2.3396128e-19
0
2.195791816e-20
0
0
0
0
0
3.823907219e-20
0
6.494482594e-20
0
2.236110816e-19
0
0
4.022234174e-19
0
0
0
0
0
1.936437342e-19
2.183183222e-19
1.300375453e-19
0
2.070306134e-20
1.373843887e-19
7.134528657e-20
0
0
0
0
0
0
3.002200118e-19
8.614746263e-20
2.087493297e-19
0
1.266316234e-20
6.707202856e-20
8.92919229e-20
0
0
0
5.753801639e-21
6.881421518e-21
2.436792806e-19
3.082632889e-20
0
1.945268157e-19
4.640668298e-19
0
0
4.477300275e-20
0
0
2.581522029e-19
4.443241143e-20
0
0
1.94897436e-19
0
0
0
1.130952023e-19
2.26191674e-19
0
0
2.046146999e-19
1.027964887e-19
0
2.005591821e-20
0
0
0
6.235419731e-19
0
0
0
8.26990083e-20
0
0
2.830610144e-19
0
0
0
1.473451459e-19
0
0
8.184013983e-20
0
2.987956173e-19
0
0
2.834510773e-20
0
0
0
2.019745547e-19
0
1.995604203e-19
6.903283031e-20
1.21291587e-19
0
0
0
4.287307093e-19
0
0
0
0
0
0
0
0
3.10251652e-20
0
0
0
0
5.80985198e-20
4.211859671e-20
0
1.037145279e-19
0
0
7.45893359e-20
0
0
0
0
6.806550954e-20
4.593205098e-19
0
1.694550702e-19
0
6.093421785e-19
3.574837273e-19
0
0
1.897830895e-20
2.179751222e-19
7.452382797e-20
1.340368891e-19
0
0
3.951629604e-20
0
8.741441401e-19
6.715224349e-19
0
1.013309131e-19
0
0
9.091102924e-20
3.499137068e-19
0
2.788260643e-19
1.4884075e-19
0
0
3.88526184e-20
2.982934268e-19
0
2.254403153e-19
0
0
0
0
0
0
3.81111871e-19
0
3.612098304e-19
0
0
0
0
0
7.386956306e-20
2.458230872e-19
0
0
7.076764629e-20
0
0
0
0
1.07950792e-19
0
0
0
0
0
0
3.709026631e-19
0
1.042681627e-19
0
2.372894841e-20
0
0
1.091903774e-19
6.74778256e-20
6.663602305e-20
0
1.976180065e-19
0
1.436054522e-19
0
4.940607363e-19
0
3.085562457e-19
5.588370206e-20
0
3.208486393e-19
2.309411958e-20
0
0
1.384472913e-19
2.494908464e-20
7.318466778e-20
1.911476805e-19
8.181805195e-20
0
0
0
0
1.063490119e-19
1.342747146e-19
4.628021554e-20
0
5.524547856e-20
3.66434654e-19
0
0
2.018425853e-19
0
0
0
0
2.745555621e-19
0
2.678325141e-19
1.166693364e-19
2.381855459e-19
0
0
0
0
7.309370583e-19
1.326239752e-19
0
0
0
0
0
0
1.0374414e-19
0
0
3.019491577e-19
2.477032071e-19
1.771798173e-19
0
0
0
3.083124863e-20
4.047442235e-19
0
0
0
0
0
0
0
0
3.826886408e-20
4.541820105e-20
6.599538535e-20
7.978766525e-20
5.244290994e-19
0
0
0
0
0
0
0
0
0
0
2.151622215e-19
0
4.264634906e-20
2.561266773e-19
0
1.515965637e-19
7.615121958e-20
1.014480445e-19
0
8.648523161e-19
5.801077325e-20
3.538214856e-19
0
0
9.801552477e-20
2.970814876e-19
0
0
1.801802281e-20
0
0
5.885471928e-20
0
2.911367396e-19
0
9.362304236e-21
0
1.497587013e-19
2.021904571e-19
0
0
1.671088092e-19
1.915086224e-19
0
0
0
0
2.531345242e-19
0
1.78350263e-19
3.448048852e-20
1.576708543e-19
0
0
1.27048947e-19
0
0
0
0
0
0
0
4.454611121e-19
6.648646631e-19
0
0
0
0
0
5.374802435e-19
0
0
3.843018465e-21
0
2.199340594e-19
3.305300327e-19
4.65339572e-21
3.264733686e-19
0
0
0
0
0
2.346988038e-19
0
0
0
0
0
7.90703807e-19
0
4.58613541e-20
0
1.768353662e-19
0
0
0
0
0
0
0
0
0
0
0
3.880874121e-19
7.913469701e-19
8.78494568e-20
8.740670943e-20
0
0
1.190012816e-19
0
4.082775579e-19
0
0
2.184336266e-19
9.58574121e-20
2.072065291e-20
0
1.513697308e-19
1.831624902e-19
5.330458172e-19
4.149581775e-19
0
2.713282618e-19
0
0
0
0
0
0
5.903496881e-20
2.53431277e-20
1.385299444e-19
2.62288389e-19
0
0
1.636323596e-19
0
0
0
0
0
0
0
0
0
0
0
0
0
0
0
0
0
4.881841071e-20
0
1.626118197e-19
2.775656471e-19
0
1.758861983e-19
0
0
0
0
0
0
0
1.195187929e-19
3.867239509e-19
4.413934463e-19
1.138017479e-19
0
3.589081958e-19
0
0
0
3.020946757e-20
0
2.373940601e-19
3.167340483e-19
2.408640166e-19
0
2.288498847e-19
0
4.219827272e-20
0
0
0
0
1.722085654e-19
3.31009726e-20
1.710991367e-20
2.781923096e-20
0
1.655853851e-19
6.712116614e-19
0
1.207007587e-19
1.007026381e-18
3.590439391e-20
9.932197815e-19
4.077713589e-19
0
0
0
0
0
0
0
0
0
0
3.190756483e-19
2.861960949e-19
0
0
0
0
0
0
9.798108828e-20
0
3.71825422e-19
0
0
2.96561274e-20
4.62812897e-20
0
0
0
7.417645457e-20
0
0
0
0
0
0
1.395264463e-19
0
0
1.240632994e-20
0
0
6.459833908e-20
2.261780897e-19
0
0
0
0
0
2.759727174e-20
0
1.893412636e-20
0
0
0
0
0
0
1.725459102e-20
8.658878269e-20
1.333222514e-19
3.052653463e-19
3.57447442e-21
2.165849141e-19
0
3.495425023e-19
0
8.823573493e-20
1.105137304e-19
0
0
0
0
0
0
0
1.817421649e-20
0
0
0
0
4.555171275e-19
0
0
3.757564826e-20
1.5371176e-19
6.026686688e-20
0
1.865471801e-19
1.997331341e-19
0
1.43334407e-19
0
0
0
0
6.895089482e-20
3.39914054e-19
0
0
6.198473115e-20
0
0
0
0
3.476774252e-19
0
5.163673603e-19
1.286592733e-19
0
1.369810822e-19
1.089198254e-19
0
7.081058195e-21
0
0
0
0
8.523555036e-19
0
0
1.034828072e-20
8.322597032e-20
0
0
0
0
0
1.573701876e-19
9.44218182e-20
1.967811594e-20
2.723663793e-20
0
0
0
0
0
9.960247457e-20
0
0
3.5903506e-20
1.53811665e-19
0
0
0
5.458172066e-19
2.206287657e-19
0
0
2.009220348e-19
0
0
0
0
0
0
0
2.59171393e-19
1.888055646e-20
0
0
0
1.145915655e-18
4.005032677e-19
0
1.595993921e-19
2.087806454e-19
0
0
0
0
0
0
0
0
0
4.218279276e-20
4.358893767e-19
0
0
3.838971765e-19
0
0
0
2.10767497e-19
3.335215612e-19
0
0
0
2.492210648e-20
2.681372161e-19
1.536962071e-20
0
0
0
1.309756045e-19
2.434889334e-19
1.5732384e-20
0
0
6.935739608e-19
1.038939783e-19
0
0
0
0
0
2.359859282e-19
9.80595696e-19
0
0
0
0
0
0
0
0
2.894843554e-19
0
0
0
0
0
2.543749067e-19
2.08986656e-19
0
0
6.594737374e-20
0
2.478857956e-19
5.300203589e-19
0
1.171506965e-19
0
0
0
0
0
0
0
0
0
6.324771046e-19
0
0
0
0
2.806706452e-19
0
4.701518108e-20
2.990564433e-19
7.517950621e-19
6.839787005e-19
1.292732297e-20
3.633358373e-19
0
2.375273157e-19
1.678390112e-19
0
0
0
5.832731673e-19
4.65247447e-19
1.038154418e-19
0
0
6.051366055e-19
2.884522295e-20
9.889006069e-20
7.017995222e-21
0
0
0
3.580198266e-20
2.367961095e-19
0
7.095836459e-20
0
0
0
0
0
4.52008951e-20
4.468405043e-20
0
0
0
4.833688065e-19
2.113080467e-20
2.891053609e-20
0
0
0
0
0
0
6.793126413e-20
8.196944783e-20
0
0
5.768595104e-20
1.532894239e-19
0
0
0
0
0
0
0
0
0
2.801812712e-19
0
0
1.231239317e-19
0
0
3.024550615e-19
0
2.403654212e-19
0
1.0950828e-19
0
0
2.02809587e-19
0
0
0
0
1.274977167e-19
0
0
0
0
0
0
0
2.136369726e-19
6.553170099e-20
5.715805248e-19
1.185579439e-19
0
0
0
0
0
4.723847089e-20
6.726615035e-20
0
0
1.249461875e-19
1.876186625e-19
1.883799194e-20
0
0
0
0
0
1.532703533e-19
0
0
0
0
0
0
0
0
0
0
2.235723843e-19
0
0
0
0
0
0
1.844912481e-19
3.153706241e-19
2.786791911e-19
1.15989434e-19
0
0
0
1.903545554e-20
0
4.090341464e-19
5.814003062e-19
0
0
0
0
0
0
0
0
0
0
7.133122666e-20
1.845358744e-19
0
4.047089953e-19
0
0
1.147142199e-19
3.463148188e-19
0
8.236682955e-19
2.10158034e-19
1.105607172e-19
4.088698713e-19
0
3.884517969e-19
2.851446632e-20
0
5.572383655e-20
0
1.382889488e-19
0
1.884908088e-19
0
0
1.24041836e-19
0
0
0
0
0
3.407490635e-20
1.24207462e-19
0
1.768048839e-19
0
0
1.255639592e-20
4.755768041e-19
0
0
0
1.207367702e-19
5.52339563e-20
0
1.137416491e-19
3.373276843e-19
3.50294427e-19
5.962747101e-19