/*--------------------------------*- C++ -*----------------------------------*\
| =========                 |                                                 |
| \\      /  F ield         | OpenFOAM: The Open Source CFD Toolbox           |
|  \\    /   O peration     | Version:  2.4.0-MNF                             |
|   \\  /    A nd           | Web:      www.OpenFOAM.org                      |
|    \\/     M anipulation  |                                                 |
\*---------------------------------------------------------------------------*/
FoamFile
{
    version     2.0;
    format      ascii;
    class       scalarField;
    location    "3e-08/lagrangian/dsmc";
    object      ERot;
}
// * * * * * * * * * * * * * * * * * * * * * * * * * * * * * * * * * * * * * //


503985
(
0
0
0
0
0
0
0
0
0
0
0
1.544193974e-20
0
1.96156786e-19
0
0
0
0
1.612383195e-20
8.092207918e-20
2.512801174e-19
0
0
0
1.542509868e-19
0
0
3.136731792e-20
2.005746081e-21
0
0
0
0
4.861867119e-19
0
0
0
0
0
4.899019695e-19
1.461244647e-19
1.554308353e-19
4.917074724e-20
0
3.755606889e-19
0
0
3.127096677e-19
3.161387402e-19
0
0
0
0
0
0
0
1.400546166e-19
0
2.226631011e-20
1.740680187e-21
3.805015873e-19
4.954002565e-20
0
0
0
0
0
0
0
9.181958505e-20
0
1.921887607e-19
1.809146862e-19
2.449391309e-19
0
0
0
0
0
9.816419753e-19
0
0
0
0
2.65546022e-19
0
0
0
0
0
1.606796814e-20
2.000091677e-19
0
1.013892449e-19
0
0
1.163173751e-19
1.398120048e-19
0
7.982302167e-20
0
0
9.534615793e-20
6.721717038e-21
0
8.875202738e-19
0
0
7.341822099e-19
0
0
6.075149393e-20
0
0
0
0
3.984913299e-19
0
4.248599293e-19
0
5.266626003e-19
0
0
0
1.144678334e-19
0
0
0
6.507519607e-19
1.235859155e-20
0
0
7.079410512e-19
0
0
0
0
4.258525436e-19
0
0
0
0
1.06967001e-19
0
0
1.741504822e-20
0
2.575450301e-20
1.347347441e-19
0
0
0
0
0
0
1.42308508e-20
3.463967306e-19
8.851048026e-20
0
0
0
3.959534998e-21
7.683027255e-20
3.774575461e-19
1.616247116e-19
0
0
1.589656829e-19
0
0
0
0
0
9.800153947e-20
7.739410335e-19
9.336872089e-20
0
4.51400549e-20
1.150434765e-19
0
0
0
0
7.825931601e-20
2.456496853e-20
0
0
0
2.231944903e-20
0
0
2.541547311e-20
0
0
1.085427654e-19
0
3.330142108e-20
0
2.45553632e-19
0
3.108912884e-20
2.285219896e-19
1.398620715e-19
0
1.443952296e-20
0
0
0
4.379893789e-20
0
2.528171603e-19
1.590891317e-19
0
7.478871718e-20
0
1.441458829e-19
0
0
8.093886615e-20
0
4.982513896e-20
0
0
0
0
0
0
2.538363602e-19
0
0
0
1.884946583e-19
0
1.513033085e-19
9.005525287e-20
0
0
9.599374945e-22
0
1.269319719e-20
0
6.163231457e-20
0
0
0
0
0
3.457707191e-21
0
0
0
0
0
2.91748242e-19
4.933976235e-20
0
0
0
0
0
3.113050702e-19
0
1.008171073e-18
4.7038415e-19
0
1.690276647e-20
1.518758807e-19
1.783627232e-19
0
0
0
0
0
0
2.618368532e-19
0
0
7.921963143e-20
0
3.773456146e-19
6.095456675e-19
0
0
0
1.021328938e-19
0
0
0
0
0
3.780947627e-21
0
0
2.092625483e-19
0
0
0
0
1.297831105e-19
3.424051552e-19
0
0
0
0
0
0
0
0
0
0
0
8.450386896e-20
2.750773169e-20
0
0
6.748649498e-20
0
0
0
0
0
0
1.1889299e-20
0
0
0
4.235905421e-19
0
0
0
0
0
0
0
2.348356588e-19
0
0
0
1.305908277e-19
0
0
1.179291984e-20
2.54976354e-19
1.070854339e-19
0
0
7.917098157e-20
0
0
0
2.618675053e-20
0
7.44235232e-20
0
0
5.243101732e-19
3.457175634e-19
5.864400618e-20
0
0
0
3.754539575e-20
1.749224096e-19
2.477685859e-20
4.120643666e-19
0
0
0
0
1.945939512e-19
0
0
0
0
0
0
0
0
0
0
3.044684226e-20
4.303079005e-19
0
2.087404164e-19
1.278945551e-19
0
0
5.793358376e-20
0
0
0
3.689862002e-19
0
1.621922738e-19
0
0
0
0
0
0
0
0
0
2.312439548e-19
4.858544186e-20
0
0
7.98285383e-20
1.979263372e-19
0
0
0
0
0
0
0
0
0
4.629049232e-19
2.194631592e-19
5.098515665e-19
1.58690571e-19
0
0
3.916716533e-19
4.411850841e-19
3.716625081e-19
2.289531656e-20
2.513878758e-19
4.607706182e-19
0
0
0
0
0
0
8.331878809e-20
0
0
0
0
0
0
1.215918592e-19
0
1.751424653e-19
0
1.425077993e-20
0
1.279453382e-19
0
0
0
7.470936914e-19
9.84526958e-20
1.205709285e-19
4.729556761e-19
8.906712411e-20
0
0
0
2.271313478e-20
3.114306928e-19
0
4.682312996e-20
2.696245442e-19
0
6.540006327e-19
0
0
0
5.830440769e-21
0
0
3.664843748e-21
0
0
1.420528504e-19
1.084246585e-20
0
0
0
0
0
1.793964456e-19
2.130048839e-21
0
0
9.885928569e-20
8.869795888e-19
0
0
0
0
0
0
6.271656814e-19
0
2.688151561e-19
1.700873909e-19
0
0
1.966826442e-20
0
2.163967449e-19
4.48444011e-19
0
0
2.21867553e-19
2.411645107e-19
0
0
0
0
0
0
0
1.8503004e-19
2.626050451e-19
0
0
0
3.976134308e-19
0
1.872877175e-19
2.35607794e-20
0
0
1.72650961e-19
1.043209565e-18
0
0
0
1.426195681e-19
8.07001584e-19
3.581628212e-20
1.647421786e-19
0
0
0
0
0
0
4.738476347e-19
4.971678795e-20
8.60241915e-20
0
0
0
5.541473919e-20
0
0
0
9.167426341e-20
0
1.10725331e-19
0
0
1.634186238e-20
0
1.806880695e-19
0
0
4.004557754e-20
0
0
1.043572071e-19
0
0
0
0
0
1.645042408e-20
0
0
0
0
4.675658465e-19
1.002934207e-19
1.798177716e-19
0
0
1.179687876e-19
0
1.747985826e-19
0
5.429060577e-20
0
0
0
1.279170733e-19
0
0
1.423873475e-19
3.030231767e-19
0
0
0
0
0
0
2.272241172e-19
2.802023927e-20
0
0
4.607457064e-19
0
0
9.847795131e-20
0
3.859282084e-19
0
5.93661964e-20
6.346967366e-19
0
0
0
0
0
0
8.427351867e-20
0
0
2.917530121e-21
0
3.308056144e-20
0
0
1.19131155e-19
4.557824478e-20
0
0
9.230196589e-19
0
0
3.551607424e-20
0
0
0
9.680622067e-20
2.100008477e-19
2.352004227e-19
0
0
3.435441949e-20
0
1.867053333e-19
0
0
0
0
5.274233045e-19
0
0
7.073672599e-20
2.233865744e-20
0
7.180015119e-20
6.058803089e-20
0
2.627673442e-19
0
1.58059252e-19
1.859452374e-20
0
0
0
0
0
0
0
5.698744619e-19
1.408878618e-20
0
2.577508528e-20
8.027402386e-19
0
3.677802206e-20
0
0
2.112814837e-19
4.11403193e-19
0
0
0
0
0
0
0
1.49700491e-19
0
0
0
6.107033872e-19
5.352155136e-19
1.908574837e-19
0
0
1.184134679e-19
0
0
0
0
0
0
0
0
0
0
0
0
0
4.438146524e-19
1.775375583e-19
0
2.263008383e-19
0
0
0
5.381502645e-19
0
0
0
1.098757596e-19
0
0
1.140106651e-20
0
0
0
1.162053629e-19
0
0
5.874389914e-20
0
0
0
0
0
0
0
0
0
4.832988777e-19
0
0
0
0
0
0
4.814083343e-19
2.279586653e-19
0
0
0
1.182416768e-19
0
0
0
0
2.141537645e-19
0
5.905759071e-21
0
0
0
2.174137475e-20
3.594918356e-20
3.630883444e-20
6.935345605e-22
0
1.23813411e-19
0
0
7.587651397e-19
0
1.603382754e-19
6.298576053e-20
2.609538502e-20
0
5.09581988e-19
0
0
0
0
2.242063049e-19
0
2.23630886e-19
1.265737247e-19
0
3.199177091e-19
0
0
1.067840216e-19
0
7.933945315e-20
1.407698211e-19
4.075851999e-19
2.659977366e-19
9.64363922e-20
0
5.694631919e-20
0
1.99287172e-19
0
0
4.937005593e-19
2.160017279e-19
3.554553204e-19
1.11898722e-19
1.307931888e-19
1.218562727e-20
0
0
7.173326821e-19
4.919925324e-19
7.346308584e-19
0
0
0
0
4.824650472e-21
0
0
8.386667675e-19
2.001067883e-19
0
4.988039916e-19
0
0
0
0
0
0
0
4.605966158e-19
1.363224788e-19
0
0
1.329066813e-19
0
0
0
6.489617933e-19
0
9.233553122e-19
0
0
0
8.797249229e-20
6.141987951e-19
3.271540984e-19
1.17546863e-19
0
0
0
6.117937354e-20
0
0
0
1.541804786e-19
0
3.488044464e-19
1.46335312e-19
0
1.59341218e-20
0
0
5.709694215e-21
0
0
1.287568665e-20
0
0
5.140217638e-20
4.893443221e-20
0
7.09653772e-21
0
0
1.65027583e-21
0
0
0
0
2.443064748e-19
0
0
0
0
0
0
4.672029254e-20
1.043368224e-19
0
0
4.836956956e-19
0
0
1.094193862e-19
0
0
0
0
0
0
0
4.694524038e-20
0
0
3.845114066e-19
3.589070016e-19
0
0
0
0
0
0
3.081479906e-19
0
0
0
4.629707317e-20
0
9.853110085e-21
0
0
0
2.819482882e-20
0
0
0
0
0
0
0
0
0
0
0
0
8.653919515e-20
0
0
5.42647452e-19
1.652219708e-19
0
0
3.762347567e-19
0
0
0
0
1.643035638e-19
0
0
0
0
0
0
0
0
1.052598429e-19
6.438252529e-20
1.745572405e-19
0
0
0
1.256977518e-19
9.674924642e-20
0
0
0
8.334734757e-19
0
0
1.84812509e-19
0
0
0
4.745512167e-20
0
3.005427139e-19
0
0
3.455122796e-19
0
0
3.216386542e-19
0
0
0
0
3.309398426e-19
2.343834409e-20
0
0
0
9.255812485e-20
0
3.263709959e-19
2.534383355e-19
3.672463407e-19
0
3.164531678e-19
4.293975749e-19
0
9.803027923e-20
5.999241691e-19
0
0
0
0
0
1.515953394e-20
0
0
0
0
0
0
7.484506752e-20
0
0
0
0
1.022688363e-19
1.305197305e-19
0
4.813018657e-19
0
0
0
2.342594697e-19
0
0
3.660326316e-19
0
0
0
0
2.511049435e-20
6.908482243e-19
0
0
1.510574439e-19
0
0
0
0
0
0
0
1.070311483e-19
0
0
0
0
3.192400289e-19
0
0
0
6.383365795e-20
0
0
0
0
0
2.291024474e-20
0
0
2.68970715e-19
0
0
0
0
0
1.499027652e-19
0
0
0
0
0
0
6.617746818e-21
0
0
4.456191076e-19
0
1.564819231e-19
0
4.855831201e-19
0
5.527450055e-20
0
0
0
0
0
0
2.765859836e-19
1.237536836e-19
3.07369901e-19
0
0
0
0
5.838574814e-20
0
0
0
0
6.562724528e-19
0
0
0
0
3.028135271e-19
0
4.6949528e-20
1.050023513e-19
1.043581059e-19
0
1.503870911e-19
0
1.826882722e-19
0
2.05344757e-19
1.133033058e-20
0
0
4.371690783e-19
0
0
1.26418531e-19
3.053310021e-19
3.550913371e-20
0
0
0
0
5.871417999e-19
2.823198791e-19
2.965145868e-19
0
5.499161823e-21
0
3.043888372e-19
2.323325439e-20
0
3.25064336e-19
0
0
0
1.603937487e-19
9.397580651e-20
9.097914665e-20
0
7.855947389e-19
4.601805831e-19
7.029802648e-20
0
0
0
0
0
0
0
0
0
5.388817642e-19
0
0
0
0
0
5.829325797e-20
0
0
3.619852045e-19
0
0
0
5.084525585e-19
4.455795523e-19
2.583533179e-19
6.824165614e-19
2.304321502e-19
0
0
2.530095498e-19
0
2.316088495e-19
3.585110195e-19
4.989505763e-19
0
0
2.171762511e-19
0
0
0
0
0
0
1.029957858e-19
0
0
0
0
0
0
0
0
5.319265578e-20
0
0
0
7.303518952e-20
3.990717156e-20
0
3.93099029e-19
8.04011087e-20
0
0
0
3.939782534e-20
0
1.414650331e-19
0
0
7.928746876e-20
3.820415153e-21
0
0
8.342057282e-20
0
9.652184201e-20
5.498127896e-19
3.716074901e-21
4.214008307e-19
0
4.017917062e-20
0
1.741285495e-19
3.798260876e-19
0
2.346679415e-20
1.270318359e-20
3.129902427e-19
0
0
0
2.743637415e-19
0
3.817672683e-19
0
0
0
0
1.417291327e-19
0
0
6.730439036e-19
0
0
0
0
1.616793164e-19
0
6.319460758e-20
0
0
0
0
0
0
0
0
1.861412247e-20
0
0
0
0
0
0
5.117341689e-20
0
0
0
0
0
0
0
7.293428355e-19
0
0
0
0
0
0
0
8.082539669e-20
2.209474942e-19
1.190808528e-19
4.524239554e-19
0
0
0
1.138418442e-19
0
3.097744473e-20
1.504879544e-19
0
1.997549479e-19
5.288641548e-20
0
0
0
0
0
0
0
0
4.627474893e-19
0
8.00145883e-20
0
0
5.898229604e-20
0
1.490327072e-19
0
6.66532878e-19
0
0
0
1.796779441e-20
0
0
5.598901678e-20
0
2.68482614e-19
8.261618711e-20
0
0
0
4.599880642e-19
0
8.573883967e-21
0
0
2.011309377e-19
1.167114373e-19
0
3.056684827e-19
0
2.285085906e-20
0
2.930569758e-19
0
6.211267688e-19
0
7.98099639e-21
0
2.58277146e-19
0
2.643231871e-19
1.213634211e-19
1.435149841e-19
0
0
0
0
0
2.641146507e-19
5.005420382e-20
0
0
4.411731217e-20
0
0
0
0
0
0
0
0
0
0
0
0
0
0
0
0
1.336727567e-19
4.169675165e-19
1.105352424e-19
0
0
1.807488734e-19
6.060201302e-20
3.96190937e-19
0
0
0
0
6.559687746e-22
5.597394983e-20
0
0
0
0
2.694907035e-19
5.076684114e-19
0
0
0
0
0
0
5.282883641e-19
0
0
0
0
0
0
0
0
0
0
2.996017291e-19
1.402582951e-19
0
8.431107141e-20
1.339801105e-19
0
2.448085665e-19
0
3.06182106e-19
1.056146776e-19
5.611432981e-20
1.454523016e-19
0
0
0
0
9.905611188e-20
0
0
9.359093868e-20
0
0
2.630674923e-19
0
3.005820774e-19
0
0
0
0
0
3.249380631e-20
0
0
1.496516211e-19
0
0
0
0
0
1.681882535e-19
0
0
0
0
0
0
3.971638824e-19
2.369132927e-19
0
2.730849455e-19
0
0
0
9.206404814e-19
2.799945932e-19
0
0
0
1.634116091e-19
0
2.602212215e-19
3.944860136e-19
0
3.139775146e-20
1.835441795e-20
0
2.380894955e-19
0
0
0
2.823911587e-20
0
0
0
0
0
1.289969142e-19
0
0
0
7.111528801e-19
0
0
0
4.555513424e-20
0
0
0
2.081830756e-19
0
0
0
2.658552501e-19
0
4.67590055e-19
0
6.142141971e-20
0
0
0
0
4.226921769e-19
0
1.173149454e-19
0
0
0
0
2.228531523e-19
0
0
0
3.535985829e-19
0
0
0
0
2.19522241e-19
0
0
2.357971096e-19
0
0
0
6.072337509e-20
0
0
0
0
0
1.673117275e-20
0
0
0
3.092002333e-19
0
0
0
0
0
2.944773121e-20
7.326292467e-20
0
2.937479514e-20
0
0
0
0
0
0
0
0
0
1.099089264e-19
0
4.160170599e-20
0
0
4.970183251e-19
1.202973162e-19
0
2.631815748e-19
6.077194643e-20
0
0
0
0
0
1.426369648e-19
0
0
0
0
0
2.493687587e-19
2.053282046e-19
0
0
0
1.201146408e-19
0
3.259102286e-20
0
7.848254204e-20
7.801136339e-20
0
0
3.163088704e-19
2.172682761e-19
3.040141128e-19
0
0
0
0
1.402891917e-19
1.614885377e-19
0
0
2.478621374e-20
4.62988406e-19
0
0
0
1.552468305e-19
3.348702047e-19
0
0
0
0
6.447610195e-20
2.313330419e-19
0
0
0
1.947603288e-19
0
7.440030875e-20
4.5450478e-19
2.492507881e-19
0
0
0
1.952060112e-19
4.3425186e-19
4.414697911e-20
3.18997861e-20
4.073961228e-20
0
0
2.017757896e-19
0
0
0
0
0
0
9.056559108e-20
0
0
2.326762593e-20
0
0
1.074860121e-19
1.885398288e-19
0
2.150512028e-19
7.502245728e-19
1.260793155e-19
0
2.277716678e-19
0
7.6385248e-20
2.293522152e-20
1.502924406e-19
1.33201799e-19
0
0
0
0
1.174836891e-19
0
0
0
0
0
6.215258727e-19
0
0
3.570826176e-19
0
0
0
3.319805847e-20
0
0
6.911386162e-20
0
0
0
0
0
0
0
0
2.752476741e-19
6.695478655e-20
0
0
2.455047011e-19
4.754543509e-20
0
0
7.011907968e-19
1.222791813e-19
0
0
0
0
2.600804242e-20
0
0
0
0
0
0
0
0
0
6.247783653e-20
0
0
3.329313285e-19
1.063349536e-19
0
0
0
0
0
0
0
0
0
1.151460399e-19
0
1.765495675e-20
1.115113944e-19
0
0
4.078559454e-20
0
6.7605361e-19
2.614250734e-19
8.711155525e-19
0
0
0
3.554531195e-19
3.242638473e-19
0
0
1.419817716e-19
0
0
7.447794232e-21
0
2.799576693e-19
0
0
0
0
0
0
0
0
0
0
0
0
4.176439454e-20
2.283203126e-20
0
6.618160118e-20
0
0
1.29361047e-19
0
5.768356561e-19
0
0
0
6.534318623e-20
0
0
4.03367736e-21
7.733509492e-19
0
5.86623879e-20
0
0
2.678521924e-19
0
0
6.172824214e-20
0
0
1.076459779e-20
0
3.422878962e-19
2.40628662e-20
3.596992591e-20
0
0
4.064542064e-19
7.509718194e-19
0
0
3.260870055e-20
0
0
0
0
0
0
1.477328846e-20
0
0
0
0
0
0
5.691396664e-20
0
6.913049062e-20
0
1.438151037e-19
2.027220905e-21
0
0
0
0
0
0
0
9.08173538e-22
0
0
3.391285784e-20
0
6.165732768e-19
1.737816674e-20
0
1.433054719e-19
2.338561128e-20
0
0
1.079591403e-19
0
0
0
0
0
2.481416639e-20
0
6.392239239e-20
0
0
0
0
1.700800101e-19
0
0
2.197119688e-19
4.631661923e-19
0
0
3.911358958e-19
0
4.939853877e-20
5.474971709e-20
0
0
0
0
2.385040565e-20
0
2.297176478e-19
0
0
0
1.836411144e-19
0
0
2.395878e-20
0
0
0
1.402267931e-19
7.184029775e-20
1.793424464e-20
0
0
1.129851887e-19
6.006404812e-20
1.492205534e-19
4.514455567e-19
0
2.901440805e-20
0
0
0
0
0
0
0
0
0
0
0
2.897830639e-20
2.126459874e-19
7.29735078e-22
0
0
9.142342305e-22
9.19565958e-20
1.779268572e-19
0
0
0
0
0
5.317602147e-19
0
0
0
6.834368125e-19
2.244188869e-19
0
0
0
0
0
0
0
0
0
0
0
3.758367198e-19
0
0
0
0
7.275465425e-20
4.050074951e-19
0
2.958126258e-19
8.703285857e-20
5.366135061e-20
0
8.970628495e-20
0
3.096191683e-19
0
0
0
0
1.627371861e-19
1.178402034e-19
1.289584546e-19
0
0
2.133812171e-19
0
0
0
0
1.157232899e-19
0
0
0
1.831893198e-19
0
0
0
2.114278844e-20
3.357368084e-19
7.778104175e-20
0
1.566258768e-19
0
0
0
9.336894884e-20
1.496798627e-19
1.229081246e-19
0
0
0
0
0
0
4.483738844e-19
4.370724474e-19
0
0
9.355559687e-20
0
0
3.776310472e-19
8.269076527e-20
0
0
0
0
3.711018613e-19
0
0
4.965623514e-19
0
0
0
0
0
5.431664467e-19
0
5.32137849e-20
1.009383922e-18
9.602790308e-19
7.647437036e-19
2.670481701e-20
0
4.92066661e-19
1.349105561e-19
0
0
6.234548451e-21
0
0
0
0
4.230619662e-19
0
2.574635208e-21
0
0
0
0
1.989872121e-19
6.221283052e-19
0
0
0
0
0
0
0
7.396198949e-20
0
0
9.320989767e-19
0
1.982750728e-19
0
0
0
2.431134923e-20
0
2.6070669e-20
0
0
0
0
1.088915593e-19
6.235779977e-20
0
0
0
0
0
0
0
0
0
0
4.101375823e-19
0
0
1.406047192e-19
0
0
4.188886842e-19
0
9.75190778e-21
0
3.796259188e-19
0
0
0
0
1.563413446e-19
0
0
0
0
0
1.354793394e-19
0
0
0
0
1.610879579e-20
0
0
0
7.328613094e-20
0
0
8.812127467e-20
0
0
0
0
2.364531033e-19
1.3390773e-19
1.352009224e-19
7.115371041e-20
0
0
3.700179395e-19
0
0
0
0
5.159946048e-22
1.724474428e-19
0
0
1.398913924e-19
0
0
7.260798915e-19
3.520374196e-19
0
0
0
4.990983718e-20
5.513902835e-19
4.119479455e-19
0
0
0
2.234609668e-19
0
0
4.932883804e-20
0
0
0
2.455041634e-19
0
0
0
0
0
0
0
0
0
0
0
0
0
0
2.00594468e-19
6.342760842e-20
0
0
0
0
0
0
0
1.246025193e-20
6.83785109e-20
9.835770095e-19
0
0
0
0
0
0
0
0
4.022289084e-19
0
0
5.30983422e-19
4.178146916e-20
0
0
1.24905773e-20
2.065800992e-20
0
0
0
0
8.561920872e-20
0
7.253825341e-20
0
0
8.765187315e-20
3.927914704e-19
0
0
0
0
0
0
9.457831953e-20
3.634815856e-19
0
0
0
0
0
0
0
1.072151694e-19
0
0
5.034483973e-19
0
0
0
2.883359737e-19
0
4.507503941e-19
0
0
7.770254323e-19
4.477323958e-21
0
0
0
0
0
4.400453154e-19
0
0
3.184571944e-19
4.186467015e-20
0
0
0
0
0
3.357904756e-19
2.327587567e-19
0
0
0
0
0
2.126888128e-19
0
0
1.430903885e-19
0
0
0
0
0
2.32957974e-19
5.954134608e-20
0
0
0
7.479397868e-20
0
0
0
0
0
0
0
0
0
0
2.176259217e-19
0
9.0658588e-20
0
2.295611983e-19
0
0
7.01945256e-19
7.831276141e-20
2.344492027e-19
0
0
0
0
9.098278063e-20
0
1.288218002e-20
2.682404771e-19
0
5.234867524e-19
0
7.103306659e-20
0
0
0
1.579282215e-20
1.339537891e-20
0
0
0
0
0
0
0
0
0
2.232948475e-19
0
0
0
2.250314449e-19
0
3.564609087e-20
0
0
1.930201311e-19
0
0
0
0
9.90302614e-20
0
0
0
4.120796161e-20
0
0
0
9.222451657e-22
0
8.817229356e-20
0
0
0
0
0
0
0
0
0
0
1.249656743e-20
0
0
0
0
0
0
0
4.319636556e-20
0
0
0
0
4.901126523e-19
0
0
0
1.301147666e-19
0
0
0
6.794769731e-19
4.773575088e-19
6.340263391e-20
0
0
0
0
1.085849784e-19
0
0
0
0
0
9.52805187e-21
4.578296274e-19
0
7.638518029e-20
0
0
1.16747102e-19
0
0
0
1.879724913e-19
1.216408236e-19
0
0
0
0
0
0
0
2.04782489e-19
8.947777069e-19
0
0
0
0
0
1.049799052e-19
0
0
0
0
2.188217725e-20
0
0
2.201707091e-19
0
0
0
0
0
0
1.516079099e-19
5.950851847e-19
1.711626357e-19
1.001059196e-19
0
0
3.944795943e-19
8.800093398e-20
0
0
0
0
0
0
0
1.534686157e-19
3.10387221e-19
0
0
2.206063256e-19
0
0
0
0
1.179419859e-19
3.264657959e-19
0
1.264359361e-19
0
2.474632064e-19
0
1.11598144e-18
0
2.098938636e-19
5.04487326e-19
0
0
0
2.067678513e-20
0
2.232198127e-19
0
1.924001814e-19
0
0
0
8.96152642e-20
1.266725231e-19
1.156936405e-18
4.821973015e-19
0
3.808086149e-20
3.040044714e-19
1.234091879e-19
0
0
0
0
8.23425534e-20
0
3.152370531e-19
0
0
0
1.932839867e-19
0
0
0
0
0
1.379424873e-19
4.671842302e-19
0
1.621092775e-19
0
0
2.45850303e-20
0
4.152181467e-20
0
3.99210669e-20
2.177750779e-20
0
0
0
0
0
2.890839654e-20
8.496099075e-20
0
0
0
0
0
0
0
0
0
0
0
0
0
0
0
0
4.196044229e-19
3.31413361e-19
0
0
0
0
0
0
0
0
5.293885919e-19
6.415040232e-20
0
0
0
0
1.180372814e-19
0
0
0
0
1.084490555e-19
1.250176032e-19
0
3.204943848e-19
0
1.086364809e-19
1.944476444e-19
0
0
3.634424104e-20
0
0
0
0
0
0
6.43065228e-20
0
0
0
1.801655399e-19
9.638107643e-19
0
0
0
0
0
0
0
0
2.28987936e-19
4.193014012e-19
5.920640023e-20
5.851102157e-20
4.485713879e-19
1.776050196e-19
0
0
0
0
2.458757356e-20
1.825465849e-19
0
0
0
0
6.889263041e-20
0
0
0
0
2.064844209e-21
0
3.136025908e-20
7.300052915e-20
3.357285453e-19
9.854272359e-19
0
0
0
5.044151904e-19
0
6.422364127e-20
0
1.530643207e-19
3.045733009e-19
0
0
7.362985667e-19
0
0
2.493068911e-19
0
0
0
4.090513287e-20
5.650536505e-19
0
0
1.111171846e-19
1.511261369e-19
0
0
0
0
0
3.365569753e-19
3.403011294e-19
0
0
0
0
0
7.024596806e-20
0
9.632783474e-20
0
3.937001014e-19
1.630295515e-20
0
4.949372474e-20
0
0
0
2.712104801e-20
0
1.161889994e-19
0
0
0
2.659596593e-19
0
0
6.836777996e-19
0
1.161012693e-19
0
0
0
0
0
0
0
0
6.383636954e-20
0
0
0
1.48614884e-19
0
0
0
0
0
1.378572178e-19
8.505995728e-20
0
0
0
2.193284566e-19
0
4.185800933e-20
2.538577448e-19
0
0
0
0
0
8.705818636e-20
6.866006912e-19
0
3.076058793e-19
0
0
0
0
0
0
0
0
0
6.171707957e-19
4.976652984e-19
0
0
0
0
1.482060408e-19
0
0
3.204761774e-19
0
0
1.616563519e-19
0
8.389960299e-20
3.387832943e-19
1.432968988e-20
1.772233298e-19
1.500576597e-19
1.258111998e-19
0
0
0
0
1.020039605e-19
0
0
0
0
1.243517275e-19
0
5.911208048e-20
2.101372805e-19
1.105392874e-20
2.022533428e-20
0
0
6.629731785e-20
0
0
9.23055713e-20
0
5.239930039e-20
0
6.624543806e-19
0
0
3.40446433e-19
0
0
3.849537311e-19
0
0
2.074056691e-20
0
0
0
9.226693011e-20
0
2.359084384e-19
0
0
2.873308859e-19
8.294986581e-20
0
1.632297222e-19
0
0
0
0
0
0
0
0
0
0
0
1.047888033e-20
2.639862866e-19
0
0
0
0
0
0
0
7.1000609e-19
1.573364888e-19
2.008984784e-19
0
3.81383737e-19
0
5.249441603e-20
4.11015854e-19
0
0
0
0
0
0
0
2.84091693e-19
0
8.667020421e-19
0
4.132260734e-19
0
0
1.923678549e-19
0
0
0
2.129340499e-19
0
1.621105477e-19
0
0
0
3.623704951e-19
0
1.291677132e-20
0
0
0
0
0
0
1.979214136e-19
2.666437395e-20
3.436962707e-19
0
3.864189836e-20
0
0
0
0
0
1.914404516e-19
6.523921362e-20
3.894318289e-20
4.982368903e-19
0
0
0
0
0
2.251979337e-20
0
0
1.194328297e-19
1.620195389e-19
0
0
2.190165737e-19
0
0
0
7.669456065e-22
7.326260699e-20
0
0
2.401320235e-19
1.752839008e-20
0
2.854566774e-19
0
0
0
0
1.146533411e-19
0
0
4.202477308e-19
0
0
0
0
5.153651932e-19
0
7.988614915e-19
0
0
4.46078872e-19
0
0
0
0
3.09217732e-19
0
0
0
0
0
2.215412245e-19
0
2.977711982e-19
0
0
0
1.04591425e-19
0
0
0
0
0
0
0
0
3.250614281e-20
0
0
0
0
1.213839765e-19
6.351502981e-20
0
0
0
0
6.943300984e-20
0
0
0
0
6.184610001e-20
7.133272563e-19
0
8.673927414e-20
0
7.197956622e-20
1.573998539e-19
0
0
3.287842357e-19
1.477673053e-19
4.711454155e-19
0
0
0
1.535946707e-19
0
0
1.527802067e-19
0
2.149858472e-19
0
0
1.386138787e-19
6.581242789e-20
0
0
8.428260691e-19
0
0
2.416173372e-19
0
0
2.184831059e-19
0
0
0
0
0
0
5.492607569e-22
0
2.676910883e-20
0
0
0
0
0
4.354479396e-19
5.844789383e-19
6.995033411e-21
0
3.984834936e-20
0
0
0
0
1.030761864e-20
0
0
0
0
0
0
3.17434328e-19
0
9.368885049e-19
0
5.10030824e-20
0
0
9.723723467e-21
6.786574816e-20
2.473305046e-19
0
3.884143427e-19
0
5.97723319e-21
0
7.348387275e-20
0
3.665657686e-20
4.881501093e-19
0
2.250177238e-19
0
0
0
1.669228983e-19
0
1.389004261e-19
1.809865158e-19
0
0
0
0
0
4.908818775e-19
2.52195171e-21
0
5.861796535e-19
0
6.715554153e-20
0
0
1.175755074e-19
0
0
0
0
4.526482583e-19
0
5.020431463e-19
0
4.072817896e-19
0
0
1.875976901e-19
0
3.673323878e-19
3.579803606e-19
0
0
0
0
0
0
8.438779919e-20
0
0
1.367530317e-19
4.507139451e-19
3.104180136e-19
0
0
0
5.78700757e-19
9.314387164e-20
0
0
0
0
0
0
2.947876182e-19
0
0
7.353749162e-20
0
2.165690364e-19
7.417517453e-20
0
0
0
0
0
0
0
0
0
0
6.490844742e-20
3.237810377e-20
0
1.741337474e-19
0
1.679305387e-19
4.166703802e-19
7.141489965e-20
0
0
0
1.24576432e-20
0
0
0
1.188466405e-19
0
0
5.726253888e-19
0
0
0
0
1.992351226e-21
0
3.940398628e-19
0
3.329015751e-19
0
0
0
9.292116608e-20
1.887260355e-19
0
0
0
0
4.50663169e-19
0
2.31960398e-19
4.603881237e-19
4.234896041e-19
0
0
0
0
0
0
0
0
0
0
0
0
0
0
0
0
0
0
0
0
3.441236073e-19
0
1.660218403e-19
1.330108458e-20
2.383498484e-19
3.816113448e-19
0
0
6.482087791e-20
0
0
0
0
0
0
0
0
3.113052335e-19
0
7.418707803e-19
0
3.569493879e-19
0
0
0
0
0
0
0
0
0
0
0
4.824875287e-20
3.959643348e-19
1.801993013e-20
2.612617008e-20
0
0
3.037010428e-19
0
1.75076894e-19
0
0
1.625198142e-19
2.727127747e-20
2.736164485e-20
0
1.355214191e-19
0
4.663917599e-19
1.915135678e-19
0
0
0
0
0
0
0
0
4.431549574e-19
0
3.269222126e-20
4.76204855e-20
0
0
3.495622133e-19
0
0
0
0
0
0
0
6.947098338e-20
0
0
0
0
0
0
0
0
0
0
0
1.217028705e-19
1.871592014e-20
0
4.681570563e-19
0
0
0
0
0
1.046028494e-19
0
1.169968898e-19
4.397234953e-19
7.461824954e-20
6.840214079e-19
0
2.951596789e-19
0
0
0
1.13273824e-19
0
7.559627174e-20
1.051295307e-20
4.570363902e-20
0
2.676962603e-19
0
5.841690563e-20
0
0
0
0
1.895922977e-20
3.426098332e-19
1.765358812e-20
3.694924096e-21
0
5.914160811e-19
7.591530791e-20
0
1.520304971e-19
2.683608565e-19
0
0
0
0
0
0
0
0
0
0
0
0
0
3.169566655e-19
0
0
0
0
0
0
0
6.080094565e-19
0
3.709702629e-19
0
0
2.087912091e-19
0
0
0
0
1.746238103e-19
0
0
0
0
0
0
6.464285871e-20
0
0
7.345266337e-20
0
0
2.741672367e-20
7.742603829e-20
0
0
0
0
0
6.341415569e-20
0
9.213812633e-21
0
0
0
0
0
0
5.083846052e-19
0
0
1.565475436e-19
1.528624697e-19
0
0
0
0
0
0
0
0
0
0
0
0
0
0
0
0
0
0
2.647347128e-19
0
0
7.18066696e-21
0
3.722499446e-19
0
1.959158672e-19
2.128340939e-20
0
8.783398596e-20
0
0
0
0
5.097156036e-20
0
0
0
4.242970114e-20
0
0
0
0
2.89294386e-19
0
0
0
0
3.932988776e-20
1.505996564e-18
5.716720309e-19
1.952710733e-21
0
0
0
0
2.903890485e-20
0
0
0
2.906807902e-20
0
0
0
0
0
1.154941908e-19
5.715418563e-19
8.196342845e-19
0
0
2.72284151e-19
0
0
0
1.235945198e-19
0
0
1.77602678e-19
4.747050266e-19
0
0
0
6.248367894e-19
1.316828713e-19
0
0
2.13526546e-19
0
0
0
0
0
0
0
1.549129407e-19
2.211288455e-19
0
0
0
1.809390559e-19
1.230622372e-19
0
2.321773685e-20
2.652324722e-19
0
0
0
0
0
0
0
0
0
1.253923653e-19
3.497230722e-20
0
0
6.479614414e-19
0
0
0
7.628999461e-21
0
0
0
0
1.337230144e-18
9.370004164e-20
9.498499376e-20
0
0
0
4.173994462e-20
2.965428186e-19
1.975285064e-19
0
0
8.793019646e-20
0
0
0
0
0
0
0
7.50655815e-20
0
0
0
0
0
0
0
0
0
0
0
0
0
0
1.235208759e-20
2.545246638e-19
0
0
0
0
2.225452773e-19
1.347474272e-19
0
0
0
0
0
0
0
0
0
0
0
2.965351203e-19
0
0
0
0
9.115143148e-20
0
5.317254933e-19
0
1.90814571e-19
2.003113988e-19
5.07214838e-21
0
0
4.075735827e-21
1.544245248e-21
0
0
0
1.88352936e-19
7.026186607e-21
9.314872788e-20
0
0
1.405561624e-19
0
2.094725755e-19
1.233061075e-19
0
0
0
5.937912026e-19
2.388431599e-19
0
4.012155025e-19
0
0
0
0
0
0
3.243565503e-19
0
0
0
1.021536921e-19
2.957077896e-19
0
0
0
0
0
0
0
3.568967547e-19
1.11475069e-19
0
0
5.0830084e-19
7.568920602e-20
0
0
0
0
0
0
0
0
0
0
0
0
0
0
0
3.953777212e-20
0
1.176426967e-19
0
3.108651044e-20
0
0
2.565926834e-20
0
0
0
0
0
0
0
0
0
0
0
0
6.317698392e-19
0
1.767422285e-19
0
0
0
0
0
0
0
0
0
0
5.003099791e-20
1.077182541e-19
1.991078713e-19
0
0
0
0
0
6.314335285e-21
0
0
0
0
0
0
0
0
0
0
6.586030298e-20
0
0
0
0
0
0
3.944538099e-19
8.798704559e-19
0
5.024352496e-19
0
0
0
1.84557113e-19
0
5.00554101e-20
9.713732765e-20
0
0
0
0
0
0
0
0
0
0
2.233950619e-19
2.513724208e-19
0
0
0
0
1.085324713e-20
1.897959086e-19
0
2.332035551e-19
6.046875711e-21
1.688442104e-20
1.1076423e-20
0
2.71939081e-19
2.265030874e-19
0
6.762616902e-20
0
5.444450306e-20
0
7.324022311e-20
0
0
1.113883877e-19
0
0
0
0
0
5.451811666e-20
6.429063693e-19
0
0
0
0
1.940459642e-19
1.210514416e-19
0
0
0
2.676897951e-19
1.10569798e-19
0
3.280839195e-21
0
2.980592463e-19
1.858655841e-21
0
0
8.322279477e-21
1.728629776e-19
0
0
0
5.264288595e-19
0
3.533707842e-20
0
0
2.794608911e-19
1.550546609e-19
0
0
3.53284502e-20
0
0
0
3.001244816e-20
2.677241568e-20
0
0
6.430123603e-20
0
0
6.518520645e-20
0
2.060863445e-20
1.492608462e-20
0
0
0
0
0
1.330570701e-20
1.782158448e-19
0
0
0
0
1.414665827e-19
1.755398443e-19
0
0
1.840629074e-19
0
0
9.4361915e-21
1.036381621e-20
0
0
1.101551082e-18
0
2.456292646e-20
4.058206504e-20
0
0
0
0
0
0
1.718123455e-19
0
0
0
3.145597387e-20
3.622733073e-20
0
0
0
0
0
0
0
0
1.120113698e-19
0
0
2.693832515e-20
0
0
0
2.600809637e-20
0
0
0
0
0
5.050137471e-20
0
0
0
0
0
8.054595332e-20
8.409219656e-22
7.058663391e-20
0
0
0
0
0
9.078521074e-19
1.106762406e-19
3.684744728e-19
2.356299498e-19
0
3.512187938e-19
0
0
1.322831662e-19
0
0
0
0
0
0
6.007185169e-19
0
4.23958663e-20
0
0
0
1.478041324e-18
0
1.263544831e-19
2.593424864e-19
0
5.874295645e-20
4.719686334e-20
0
6.765644212e-20
2.701479471e-19
0
0
3.089584062e-19
1.243541607e-19
0
0
0
0
0
1.880056583e-19
1.044716124e-19
0
0
0
3.93975718e-20
0
1.44072561e-19
0
0
0
0
0
0
4.747891532e-19
5.419790614e-20
1.985808009e-19
0
0
0
0
3.653568195e-20
2.835527254e-22
0
0
0
0
0
2.305724851e-19
0
0
0
2.503681952e-20
7.535863598e-20
3.459643733e-19
0
7.408948422e-21
0
0
0
1.026143228e-19
1.70476025e-19
0
4.06528103e-20
1.164662543e-19
1.243454481e-19
0
0
0
7.499460548e-20
0
0
1.818905634e-19
0
1.736451498e-19
0
0
4.330243546e-20
0
4.869029499e-21
0
1.723993891e-19
1.908280873e-20
0
0
3.626329207e-19
2.788609518e-19
6.826615391e-19
0
0
0
0
0
0
0
2.524688808e-20
0
0
5.161060907e-20
6.050411481e-19
0
0
0
1.787791867e-19
0
0
0
0
0
0
2.078119808e-19
0
0
0
0
9.558074392e-22
5.484353361e-20
0
0
0
0
0
9.182915517e-20
0
4.510067045e-19
1.01677352e-19
0
5.577168394e-19
0
7.446512408e-19
0
0
0
0
0
9.735584623e-20
6.828762223e-20
1.608768139e-20
0
0
0
0
8.055080958e-20
0
3.467753411e-19
0
0
0
0
1.476694984e-19
0
1.119697405e-19
0
0
0
0
1.399806231e-19
0
0
3.083062953e-19
2.435408599e-19
0
5.136488336e-20
8.357865162e-20
0
0
0
0
0
6.7444683e-19
0
0
1.011981767e-20
1.638339031e-19
0
0
1.081922205e-19
0
4.89048389e-20
1.247980491e-20
2.376355423e-19
2.385411813e-20
0
7.570877288e-19
0
0
0
0
0
0
0
0
5.600461359e-19
0
0
0
0
4.25429805e-20
0
0
6.9324692e-21
3.809841848e-19
0
5.797588602e-20
0
0
0
0
1.132730359e-19
2.333713356e-19
1.738460618e-21
0
0
0
9.161547284e-20
0
0
0
0
0
0
0
0
0
2.250382932e-19
4.969603525e-20
0
0
1.800517963e-20
6.047059754e-20
0
0
0
4.993586818e-19
0
0
8.326557607e-19
0
0
0
9.528508164e-20
0
2.617226819e-19
5.448933892e-19
0
0
2.931740666e-20
0
0
3.061942397e-20
0
0
0
3.559287041e-19
0
6.177981151e-20
0
0
2.327520445e-19
0
6.388438842e-19
0
0
0
3.859572936e-20
1.432974968e-19
0
9.231918406e-20
6.477342654e-20
0
8.344101271e-20
9.037791659e-20
0
4.155002399e-19
1.43853952e-19
0
1.203631752e-19
0
1.373634737e-20
7.405138738e-20
0
0
0
0
7.218106231e-20
1.121164021e-20
0
0
3.173910108e-20
0
0
1.405276184e-21
0
0
2.313078917e-19
0
0
0
0
2.618047555e-19
2.725423854e-19
0
1.627770082e-19
2.948937655e-19
0
0
0
2.701667345e-19
2.525408432e-19
6.901322693e-19
0
0
0
0
4.01495452e-19
3.638423024e-19
0
0
0
5.649644759e-20
3.522234732e-19
0
0
0
4.056683879e-19
2.040342594e-19
2.008929936e-19
1.648032436e-19
0
0
9.752104514e-20
6.484010277e-20
0
0
0
0
3.187206241e-19
0
0
0
0
0
0
1.647988817e-19
3.071763462e-19
2.601727636e-19
5.166618872e-19
0
0
0
0
7.522096619e-21
0
2.306771905e-20
1.492080066e-19
0
3.525130765e-20
0
1.091792617e-18
0
0
5.011260693e-20
0
0
0
0
5.562277277e-20
0
1.091490639e-20
0
0
0
0
0
0
0
0
0
0
0
0
0
0
2.945025672e-19
0
4.595132158e-20
0
0
2.902443848e-20
6.222475042e-19
1.209178163e-19
0
1.313973982e-19
0
0
0
0
0
5.685572576e-19
0
0
5.793890128e-20
0
0
1.614526117e-19
1.818097125e-19
4.374855991e-19
0
7.324211211e-19
2.241170262e-19
0
6.828317471e-20
0
0
0
0
4.029665547e-19
0
0
0
0
0
0
7.236978203e-19
0
0
9.152946417e-20
1.273010938e-19
0
4.899182968e-19
0
0
0
0
0
1.352636841e-19
5.275699616e-19
0
0
1.050695734e-19
6.653900656e-20
3.221996102e-20
0
0
1.60586045e-19
1.391452753e-20
0
0
0
0
0
4.914948335e-21
0
0
2.716620933e-19
1.189825542e-19
0
0
0
0
7.642543126e-20
2.284523183e-19
0
3.742622646e-19
0
0
0
0
0
4.764297033e-19
3.381943911e-19
9.339319981e-20
0
0
0
0
1.696726662e-19
8.979466265e-20
0
0
9.154189167e-20
0
0
0
0
0
3.117277678e-19
0
0
0
0
2.947466897e-20
3.116057057e-19
1.842514859e-19
6.019920723e-20
0
1.491228356e-19
0
0
0
0
9.24213756e-20